<?xml version="1.0" encoding="UTF-8"?>

<!-- generated on 2025-02-10 10:56:33 by Eclipse SUMO sumo Version v1_21_0+2168-09aeee8c18e
<sumoConfiguration xmlns:xsi="http://www.w3.org/2001/XMLSchema-instance" xsi:noNamespaceSchemaLocation="http://sumo.dlr.de/xsd/sumoConfiguration.xsd">

    <input>
        <net-file value="/Users/dr/Desktop/sumo/sumo-web3d/sumo_web3d/server/../scenarios/simulation2/ongar.net.xml"/>
        <route-files value="/Users/dr/Desktop/sumo/sumo-web3d/sumo_web3d/server/../scenarios/simulation2/ongar.rou.xml"/>
    </input>

    <output>
        <tripinfo-output value="/Users/dr/Desktop/sumo/sumo-web3d/sumo_web3d/server/../scenarios/simulation2/tripinfo.xml"/>
    </output>

    <time>
        <begin value="0"/>
        <end value="3600"/>
        <step-length value="1.0"/>
    </time>

    <traci_server>
        <remote-port value="53990"/>
    </traci_server>

</sumoConfiguration>
-->

<tripinfos xmlns:xsi="http://www.w3.org/2001/XMLSchema-instance" xsi:noNamespaceSchemaLocation="http://sumo.dlr.de/xsd/tripinfo_file.xsd">
    <tripinfo id="5" depart="5.00" departLane="-74324500#1_0" departPos="5.10" departSpeed="0.00" departDelay="0.00" arrival="19.00" arrivalLane="15958814#0_0" arrivalPos="22.17" arrivalSpeed="9.85" duration="14.00" routeLength="80.92" waitingTime="0.00" waitingCount="0" stopTime="0.00" timeLoss="3.74" rerouteNo="0" devices="tripinfo_5" vType="DEFAULT_VEHTYPE" speedFactor="1.03" vaporized=""/>
    <tripinfo id="0" depart="0.00" departLane="3807695#0_0" departPos="0.20" departSpeed="0.00" departDelay="0.00" arrival="20.00" arrivalLane="-112574752#2_0" arrivalPos="47.71" arrivalSpeed="6.93" duration="20.00" routeLength="120.75" waitingTime="0.00" waitingCount="0" stopTime="0.00" timeLoss="3.33" rerouteNo="0" devices="tripinfo_0" vType="DEFAULT_VEHTYPE" speedFactor="1.06" vaporized=""/>
    <tripinfo id="13" depart="13.00" departLane="-27011846#1_0" departPos="5.10" departSpeed="0.00" departDelay="0.00" arrival="41.00" arrivalLane="-27011847#2_0" arrivalPos="28.91" arrivalSpeed="11.45" duration="28.00" routeLength="243.18" waitingTime="0.00" waitingCount="0" stopTime="0.00" timeLoss="4.60" rerouteNo="0" devices="tripinfo_13" vType="DEFAULT_VEHTYPE" speedFactor="0.86" vaporized=""/>
    <tripinfo id="31" depart="31.00" departLane="227986165#1_0" departPos="4.32" departSpeed="0.00" departDelay="0.00" arrival="43.00" arrivalLane="519366890#0_0" arrivalPos="1.81" arrivalSpeed="4.32" duration="12.00" routeLength="81.09" waitingTime="0.00" waitingCount="0" stopTime="0.00" timeLoss="4.53" rerouteNo="0" devices="tripinfo_31" vType="DEFAULT_VEHTYPE" speedFactor="0.83" vaporized=""/>
    <tripinfo id="1" depart="1.00" departLane="-81604323_0" departPos="5.10" departSpeed="0.00" departDelay="0.00" arrival="44.00" arrivalLane="-74324500#1_0" arrivalPos="9.74" arrivalSpeed="5.88" duration="43.00" routeLength="235.13" waitingTime="0.00" waitingCount="0" stopTime="0.00" timeLoss="5.88" rerouteNo="0" devices="tripinfo_1" vType="DEFAULT_VEHTYPE" speedFactor="0.94" vaporized=""/>
    <tripinfo id="9" depart="9.00" departLane="81604322#1_0" departPos="5.10" departSpeed="0.00" departDelay="0.00" arrival="44.00" arrivalLane="-1021316845_0" arrivalPos="7.84" arrivalSpeed="22.64" duration="35.00" routeLength="363.18" waitingTime="0.00" waitingCount="0" stopTime="0.00" timeLoss="17.01" rerouteNo="0" devices="tripinfo_9" vType="DEFAULT_VEHTYPE" speedFactor="1.05" vaporized=""/>
    <tripinfo id="4" depart="4.00" departLane="-93907748#3_0" departPos="4.97" departSpeed="0.00" departDelay="0.00" arrival="46.00" arrivalLane="-11967529#1_0" arrivalPos="26.99" arrivalSpeed="10.30" duration="42.00" routeLength="318.88" waitingTime="0.00" waitingCount="0" stopTime="0.00" timeLoss="11.84" rerouteNo="0" devices="tripinfo_4" vType="DEFAULT_VEHTYPE" speedFactor="1.08" vaporized=""/>
    <tripinfo id="10" depart="10.00" departLane="81604322#0_0" departPos="0.20" departSpeed="0.00" departDelay="0.00" arrival="51.00" arrivalLane="519366893_0" arrivalPos="2.48" arrivalSpeed="7.53" duration="41.00" routeLength="311.80" waitingTime="0.00" waitingCount="0" stopTime="0.00" timeLoss="21.59" rerouteNo="0" devices="tripinfo_10" vType="DEFAULT_VEHTYPE" speedFactor="0.89" vaporized=""/>
    <tripinfo id="28" depart="28.00" departLane="-677441247#0_0" departPos="5.10" departSpeed="0.00" departDelay="0.00" arrival="53.00" arrivalLane="677441260_0" arrivalPos="2.46" arrivalSpeed="9.28" duration="25.00" routeLength="174.11" waitingTime="0.00" waitingCount="0" stopTime="0.00" timeLoss="6.27" rerouteNo="0" devices="tripinfo_28" vType="DEFAULT_VEHTYPE" speedFactor="0.97" vaporized=""/>
    <tripinfo id="37" depart="37.00" departLane="43075058#1_0" departPos="0.20" departSpeed="0.00" departDelay="0.00" arrival="56.00" arrivalLane="-93905234#5_0" arrivalPos="12.22" arrivalSpeed="8.06" duration="19.00" routeLength="111.83" waitingTime="0.00" waitingCount="0" stopTime="0.00" timeLoss="6.78" rerouteNo="0" devices="tripinfo_37" vType="DEFAULT_VEHTYPE" speedFactor="1.18" vaporized=""/>
    <tripinfo id="52" depart="52.00" departLane="-81604322#3_0" departPos="5.10" departSpeed="0.00" departDelay="0.00" arrival="77.00" arrivalLane="3807695#2_0" arrivalPos="26.35" arrivalSpeed="7.20" duration="25.00" routeLength="131.50" waitingTime="0.00" waitingCount="0" stopTime="0.00" timeLoss="13.58" rerouteNo="0" devices="tripinfo_52" vType="DEFAULT_VEHTYPE" speedFactor="1.04" vaporized=""/>
    <tripinfo id="63" depart="64.00" departLane="-112574752#0_0" departPos="5.10" departSpeed="0.00" departDelay="1.00" arrival="78.00" arrivalLane="93904033_0" arrivalPos="0.20" arrivalSpeed="6.83" duration="14.00" routeLength="75.92" waitingTime="0.00" waitingCount="0" stopTime="0.00" timeLoss="3.07" rerouteNo="0" devices="tripinfo_63" vType="DEFAULT_VEHTYPE" speedFactor="1.10" vaporized=""/>
    <tripinfo id="38" depart="38.00" departLane="93904032#0_0" departPos="5.10" departSpeed="0.00" departDelay="0.00" arrival="81.00" arrivalLane="109895758_0" arrivalPos="118.36" arrivalSpeed="24.71" duration="43.00" routeLength="478.36" waitingTime="0.00" waitingCount="0" stopTime="0.00" timeLoss="8.22" rerouteNo="0" devices="tripinfo_38" vType="DEFAULT_VEHTYPE" speedFactor="1.15" vaporized=""/>
    <tripinfo id="65" depart="65.00" departLane="-81604340#1_0" departPos="5.10" departSpeed="0.00" departDelay="0.00" arrival="81.00" arrivalLane="-15958814#4_0" arrivalPos="122.52" arrivalSpeed="13.68" duration="16.00" routeLength="164.10" waitingTime="0.00" waitingCount="0" stopTime="0.00" timeLoss="3.84" rerouteNo="0" devices="tripinfo_65" vType="DEFAULT_VEHTYPE" speedFactor="1.00" vaporized=""/>
    <tripinfo id="3" depart="3.00" departLane="93902527_0" departPos="5.10" departSpeed="0.00" departDelay="0.00" arrival="82.00" arrivalLane="-27011846#0_0" arrivalPos="40.54" arrivalSpeed="13.16" duration="79.00" routeLength="714.59" waitingTime="0.00" waitingCount="0" stopTime="0.00" timeLoss="17.99" rerouteNo="0" devices="tripinfo_3" vType="DEFAULT_VEHTYPE" speedFactor="1.01" vaporized=""/>
    <tripinfo id="7" depart="7.00" departLane="3807695#4_0" departPos="5.10" departSpeed="0.00" departDelay="0.00" arrival="84.00" arrivalLane="15958819#1_0" arrivalPos="24.67" arrivalSpeed="11.24" duration="77.00" routeLength="465.83" waitingTime="0.00" waitingCount="0" stopTime="0.00" timeLoss="10.25" rerouteNo="0" devices="tripinfo_7" vType="DEFAULT_VEHTYPE" speedFactor="0.83" vaporized=""/>
    <tripinfo id="64" depart="64.00" departLane="81604350_0" departPos="5.10" departSpeed="0.00" departDelay="0.00" arrival="87.00" arrivalLane="81604327#0_0" arrivalPos="23.65" arrivalSpeed="12.05" duration="23.00" routeLength="119.91" waitingTime="0.00" waitingCount="0" stopTime="0.00" timeLoss="10.79" rerouteNo="0" devices="tripinfo_64" vType="DEFAULT_VEHTYPE" speedFactor="1.00" vaporized=""/>
    <tripinfo id="12" depart="12.00" departLane="93905762#1_0" departPos="5.10" departSpeed="0.00" departDelay="0.00" arrival="90.00" arrivalLane="-81605431_0" arrivalPos="9.67" arrivalSpeed="7.48" duration="78.00" routeLength="471.24" waitingTime="3.00" waitingCount="1" stopTime="0.00" timeLoss="27.28" rerouteNo="0" devices="tripinfo_12" vType="DEFAULT_VEHTYPE" speedFactor="0.94" vaporized=""/>
    <tripinfo id="66" depart="67.00" departLane="81604350_0" departPos="5.10" departSpeed="0.00" departDelay="1.00" arrival="93.00" arrivalLane="93905234#2_0" arrivalPos="0.20" arrivalSpeed="5.48" duration="26.00" routeLength="133.79" waitingTime="1.00" waitingCount="1" stopTime="0.00" timeLoss="11.38" rerouteNo="0" devices="tripinfo_66" vType="DEFAULT_VEHTYPE" speedFactor="0.90" vaporized=""/>
    <tripinfo id="26" depart="30.00" departLane="-81604322#3_0" departPos="5.10" departSpeed="0.00" departDelay="4.00" arrival="94.00" arrivalLane="93904423#3_0" arrivalPos="4.49" arrivalSpeed="6.84" duration="64.00" routeLength="239.84" waitingTime="17.00" waitingCount="2" stopTime="0.00" timeLoss="35.61" rerouteNo="0" devices="tripinfo_26" vType="DEFAULT_VEHTYPE" speedFactor="1.02" vaporized=""/>
    <tripinfo id="61" depart="61.00" departLane="74324500#2_0" departPos="0.20" departSpeed="0.00" departDelay="0.00" arrival="94.00" arrivalLane="15958815#4_0" arrivalPos="1.94" arrivalSpeed="12.60" duration="33.00" routeLength="284.30" waitingTime="0.00" waitingCount="0" stopTime="0.00" timeLoss="9.35" rerouteNo="0" devices="tripinfo_61" vType="DEFAULT_VEHTYPE" speedFactor="1.17" vaporized=""/>
    <tripinfo id="50" depart="50.00" departLane="-1117437112_0" departPos="5.10" departSpeed="0.00" departDelay="0.00" arrival="98.00" arrivalLane="677441252_0" arrivalPos="37.55" arrivalSpeed="13.32" duration="48.00" routeLength="487.73" waitingTime="0.00" waitingCount="0" stopTime="0.00" timeLoss="13.60" rerouteNo="0" devices="tripinfo_50" vType="DEFAULT_VEHTYPE" speedFactor="1.09" vaporized=""/>
    <tripinfo id="47" depart="47.00" departLane="-15958815#0_0" departPos="5.10" departSpeed="0.00" departDelay="0.00" arrival="102.00" arrivalLane="-93905234#0_0" arrivalPos="110.00" arrivalSpeed="5.20" duration="55.00" routeLength="390.38" waitingTime="0.00" waitingCount="0" stopTime="0.00" timeLoss="8.67" rerouteNo="0" devices="tripinfo_47" vType="DEFAULT_VEHTYPE" speedFactor="0.90" vaporized=""/>
    <tripinfo id="82" depart="82.00" departLane="81604340#2_0" departPos="5.10" departSpeed="0.00" departDelay="0.00" arrival="103.00" arrivalLane="-15958815#4_0" arrivalPos="1.94" arrivalSpeed="5.83" duration="21.00" routeLength="154.82" waitingTime="0.00" waitingCount="0" stopTime="0.00" timeLoss="8.51" rerouteNo="0" devices="tripinfo_82" vType="DEFAULT_VEHTYPE" speedFactor="1.04" vaporized=""/>
    <tripinfo id="27" depart="27.00" departLane="3807695#3_0" departPos="5.10" departSpeed="0.00" departDelay="0.00" arrival="105.00" arrivalLane="317672499_0" arrivalPos="31.41" arrivalSpeed="10.30" duration="78.00" routeLength="917.37" waitingTime="0.00" waitingCount="0" stopTime="0.00" timeLoss="22.38" rerouteNo="0" devices="tripinfo_27" vType="DEFAULT_VEHTYPE" speedFactor="1.01" vaporized=""/>
    <tripinfo id="15" depart="15.00" departLane="81604322#0_0" departPos="0.20" departSpeed="0.00" departDelay="0.00" arrival="109.00" arrivalLane="677441260_0" arrivalPos="2.46" arrivalSpeed="8.20" duration="94.00" routeLength="529.36" waitingTime="12.00" waitingCount="2" stopTime="0.00" timeLoss="39.83" rerouteNo="0" devices="tripinfo_15" vType="DEFAULT_VEHTYPE" speedFactor="1.09" vaporized=""/>
    <tripinfo id="25" depart="25.00" departLane="-93904025#2_0" departPos="5.10" departSpeed="0.00" departDelay="0.00" arrival="111.00" arrivalLane="-73925371_0" arrivalPos="18.50" arrivalSpeed="10.26" duration="86.00" routeLength="576.97" waitingTime="7.00" waitingCount="1" stopTime="0.00" timeLoss="26.85" rerouteNo="0" devices="tripinfo_25" vType="DEFAULT_VEHTYPE" speedFactor="1.16" vaporized=""/>
    <tripinfo id="17" depart="17.00" departLane="-93904032#2_0" departPos="5.10" departSpeed="0.00" departDelay="0.00" arrival="113.00" arrivalLane="227986165#0_0" arrivalPos="7.22" arrivalSpeed="7.01" duration="96.00" routeLength="707.32" waitingTime="12.00" waitingCount="1" stopTime="0.00" timeLoss="32.21" rerouteNo="0" devices="tripinfo_17" vType="DEFAULT_VEHTYPE" speedFactor="1.05" vaporized=""/>
    <tripinfo id="88" depart="88.00" departLane="-27011847#0_0" departPos="5.10" departSpeed="0.00" departDelay="0.00" arrival="115.00" arrivalLane="-93921045#4_0" arrivalPos="0.20" arrivalSpeed="12.99" duration="27.00" routeLength="231.08" waitingTime="0.00" waitingCount="0" stopTime="0.00" timeLoss="7.54" rerouteNo="0" devices="tripinfo_88" vType="DEFAULT_VEHTYPE" speedFactor="0.97" vaporized=""/>
    <tripinfo id="57" depart="58.00" departLane="93904025#2_0" departPos="5.10" departSpeed="0.00" departDelay="1.00" arrival="116.00" arrivalLane="81604344_0" arrivalPos="4.75" arrivalSpeed="4.94" duration="58.00" routeLength="300.22" waitingTime="0.00" waitingCount="0" stopTime="0.00" timeLoss="7.31" rerouteNo="0" devices="tripinfo_57" vType="DEFAULT_VEHTYPE" speedFactor="0.88" vaporized=""/>
    <tripinfo id="39" depart="45.00" departLane="-81604322#3_0" departPos="5.10" departSpeed="0.00" departDelay="6.00" arrival="117.00" arrivalLane="-7990182_0" arrivalPos="45.84" arrivalSpeed="6.64" duration="72.00" routeLength="317.50" waitingTime="14.00" waitingCount="2" stopTime="0.00" timeLoss="32.41" rerouteNo="0" devices="tripinfo_39" vType="DEFAULT_VEHTYPE" speedFactor="1.01" vaporized=""/>
    <tripinfo id="91" depart="91.00" departLane="93921045#4_0" departPos="0.20" departSpeed="0.00" departDelay="0.00" arrival="120.00" arrivalLane="-27011847#3_0" arrivalPos="74.56" arrivalSpeed="14.05" duration="29.00" routeLength="295.92" waitingTime="0.00" waitingCount="0" stopTime="0.00" timeLoss="7.15" rerouteNo="0" devices="tripinfo_91" vType="DEFAULT_VEHTYPE" speedFactor="1.06" vaporized=""/>
    <tripinfo id="24" depart="24.00" departLane="317672513_0" departPos="5.10" departSpeed="0.00" departDelay="0.00" arrival="124.00" arrivalLane="-93904032#1_0" arrivalPos="28.42" arrivalSpeed="5.25" duration="100.00" routeLength="669.53" waitingTime="3.00" waitingCount="1" stopTime="0.00" timeLoss="19.43" rerouteNo="0" devices="tripinfo_24" vType="DEFAULT_VEHTYPE" speedFactor="0.94" vaporized=""/>
    <tripinfo id="40" depart="40.00" departLane="27011847#0_0" departPos="5.10" departSpeed="0.00" departDelay="0.00" arrival="126.00" arrivalLane="-81604322#4_0" arrivalPos="11.24" arrivalSpeed="11.12" duration="86.00" routeLength="477.71" waitingTime="18.00" waitingCount="2" stopTime="0.00" timeLoss="57.03" rerouteNo="0" devices="tripinfo_40" vType="DEFAULT_VEHTYPE" speedFactor="1.17" vaporized=""/>
    <tripinfo id="68" depart="68.00" departLane="-15958815#2_0" departPos="5.10" departSpeed="0.00" departDelay="0.00" arrival="126.00" arrivalLane="74324500#0_0" arrivalPos="3.44" arrivalSpeed="6.63" duration="58.00" routeLength="394.69" waitingTime="0.00" waitingCount="0" stopTime="0.00" timeLoss="25.49" rerouteNo="0" devices="tripinfo_68" vType="DEFAULT_VEHTYPE" speedFactor="1.02" vaporized=""/>
    <tripinfo id="21" depart="21.00" departLane="-74324500#4_0" departPos="5.10" departSpeed="0.00" departDelay="0.00" arrival="127.00" arrivalLane="-81604335_0" arrivalPos="16.57" arrivalSpeed="8.60" duration="106.00" routeLength="734.75" waitingTime="0.00" waitingCount="0" stopTime="0.00" timeLoss="18.89" rerouteNo="0" devices="tripinfo_21" vType="DEFAULT_VEHTYPE" speedFactor="0.93" vaporized=""/>
    <tripinfo id="103" depart="105.00" departLane="-93905234#3_0" departPos="2.03" departSpeed="0.00" departDelay="2.00" arrival="127.00" arrivalLane="-15958815#0_0" arrivalPos="11.58" arrivalSpeed="12.73" duration="22.00" routeLength="214.31" waitingTime="1.00" waitingCount="1" stopTime="0.00" timeLoss="4.72" rerouteNo="0" devices="tripinfo_103" vType="DEFAULT_VEHTYPE" speedFactor="0.97" vaporized=""/>
    <tripinfo id="16" depart="16.00" departLane="15958815#5_0" departPos="5.10" departSpeed="0.00" departDelay="0.00" arrival="128.00" arrivalLane="93908975_0" arrivalPos="9.30" arrivalSpeed="13.17" duration="112.00" routeLength="787.78" waitingTime="6.00" waitingCount="2" stopTime="0.00" timeLoss="31.87" rerouteNo="0" devices="tripinfo_16" vType="DEFAULT_VEHTYPE" speedFactor="1.03" vaporized=""/>
    <tripinfo id="69" depart="69.00" departLane="73952916#0_0" departPos="5.10" departSpeed="0.00" departDelay="0.00" arrival="132.00" arrivalLane="-30443981#1_0" arrivalPos="43.68" arrivalSpeed="13.31" duration="63.00" routeLength="669.17" waitingTime="3.00" waitingCount="1" stopTime="0.00" timeLoss="19.17" rerouteNo="0" devices="tripinfo_69" vType="DEFAULT_VEHTYPE" speedFactor="0.97" vaporized=""/>
    <tripinfo id="18" depart="18.00" departLane="81604326_0" departPos="5.10" departSpeed="0.00" departDelay="0.00" arrival="133.00" arrivalLane="317672505#0_0" arrivalPos="36.04" arrivalSpeed="18.19" duration="115.00" routeLength="731.83" waitingTime="28.00" waitingCount="3" stopTime="0.00" timeLoss="61.83" rerouteNo="0" devices="tripinfo_18" vType="DEFAULT_VEHTYPE" speedFactor="1.12" vaporized=""/>
    <tripinfo id="20" depart="20.00" departLane="519366893_0" departPos="2.48" departSpeed="0.00" departDelay="0.00" arrival="134.00" arrivalLane="-15958814#0_0" arrivalPos="22.12" arrivalSpeed="5.13" duration="114.00" routeLength="708.19" waitingTime="25.00" waitingCount="3" stopTime="0.00" timeLoss="52.38" rerouteNo="0" devices="tripinfo_20" vType="DEFAULT_VEHTYPE" speedFactor="0.99" vaporized=""/>
    <tripinfo id="30" depart="30.00" departLane="93921826#0_0" departPos="5.10" departSpeed="0.00" departDelay="0.00" arrival="134.00" arrivalLane="3807695#1_0" arrivalPos="21.15" arrivalSpeed="4.90" duration="104.00" routeLength="605.02" waitingTime="16.00" waitingCount="2" stopTime="0.00" timeLoss="45.48" rerouteNo="0" devices="tripinfo_30" vType="DEFAULT_VEHTYPE" speedFactor="0.89" vaporized=""/>
    <tripinfo id="34" depart="34.00" departLane="-81604342#1_0" departPos="0.20" departSpeed="0.00" departDelay="0.00" arrival="135.00" arrivalLane="-81604323_0" arrivalPos="11.37" arrivalSpeed="5.94" duration="101.00" routeLength="500.96" waitingTime="20.00" waitingCount="1" stopTime="0.00" timeLoss="39.36" rerouteNo="0" devices="tripinfo_34" vType="DEFAULT_VEHTYPE" speedFactor="0.95" vaporized=""/>
    <tripinfo id="106" depart="106.00" departLane="1021316844#1_0" departPos="0.20" departSpeed="0.00" departDelay="0.00" arrival="139.00" arrivalLane="-93921045#1_0" arrivalPos="14.11" arrivalSpeed="11.12" duration="33.00" routeLength="228.07" waitingTime="0.00" waitingCount="0" stopTime="0.00" timeLoss="12.99" rerouteNo="0" devices="tripinfo_106" vType="DEFAULT_VEHTYPE" speedFactor="1.00" vaporized=""/>
    <tripinfo id="36" depart="36.00" departLane="81604349#0_0" departPos="3.06" departSpeed="0.00" departDelay="0.00" arrival="140.00" arrivalLane="-81604344_0" arrivalPos="4.74" arrivalSpeed="4.06" duration="104.00" routeLength="651.71" waitingTime="13.00" waitingCount="2" stopTime="0.00" timeLoss="33.89" rerouteNo="0" devices="tripinfo_36" vType="DEFAULT_VEHTYPE" speedFactor="0.93" vaporized=""/>
    <tripinfo id="116" depart="116.00" departLane="304435201#6_0" departPos="5.10" departSpeed="0.00" departDelay="0.00" arrival="142.00" arrivalLane="451641582#2_0" arrivalPos="0.87" arrivalSpeed="12.88" duration="26.00" routeLength="195.36" waitingTime="0.00" waitingCount="0" stopTime="0.00" timeLoss="8.85" rerouteNo="0" devices="tripinfo_116" vType="DEFAULT_VEHTYPE" speedFactor="1.02" vaporized=""/>
</tripinfos>
